# vtk DataFile Version 3.0
ElmerSolver output; started at 2025/08/25 22:24:10
ASCII
DATASET UNSTRUCTURED_GRID
POINTS 144 double
  2.5000000E-002 -5.0000000E-003  1.0000000E-003
 -2.5000000E-002 -5.0000000E-003  1.0000000E-003
  2.5000000E-002 -5.0000000E-003  1.2000000E-003
 -2.5000000E-002 -5.0000000E-003  1.2000000E-003
  2.5000000E-002  5.0000000E-003  1.0000000E-003
  2.5000000E-002  5.0000000E-003  1.2000000E-003
 -2.5000000E-002  5.0000000E-003  1.0000000E-003
 -2.5000000E-002  5.0000000E-003  1.2000000E-003
  2.5000000E-002 -5.0000000E-003  0.0000000E+000
 -2.5000000E-002 -5.0000000E-003  0.0000000E+000
  2.5000000E-002 -5.0000000E-003  1.0000000E-003
 -2.5000000E-002 -5.0000000E-003  1.0000000E-003
  2.5000000E-002  5.0000000E-003  0.0000000E+000
  2.5000000E-002  5.0000000E-003  1.0000000E-003
 -2.5000000E-002  5.0000000E-003  0.0000000E+000
 -2.5000000E-002  5.0000000E-003  1.0000000E-003
  2.0000000E-002 -5.0000000E-003  1.0000000E-003
  1.5000000E-002 -5.0000000E-003  1.0000000E-003
  1.0000000E-002 -5.0000000E-003  1.0000000E-003
  5.0000000E-003 -5.0000000E-003  1.0000000E-003
 -5.8974477E-017 -5.0000000E-003  1.0000000E-003
 -5.0000000E-003 -5.0000000E-003  1.0000000E-003
 -1.0000000E-002 -5.0000000E-003  1.0000000E-003
 -1.5000000E-002 -5.0000000E-003  1.0000000E-003
 -2.0000000E-002 -5.0000000E-003  1.0000000E-003
  2.0000000E-002 -5.0000000E-003  1.2000000E-003
  1.5000000E-002 -5.0000000E-003  1.2000000E-003
  1.0000000E-002 -5.0000000E-003  1.2000000E-003
  5.0000000E-003 -5.0000000E-003  1.2000000E-003
 -5.8974477E-017 -5.0000000E-003  1.2000000E-003
 -5.0000000E-003 -5.0000000E-003  1.2000000E-003
 -1.0000000E-002 -5.0000000E-003  1.2000000E-003
 -1.5000000E-002 -5.0000000E-003  1.2000000E-003
 -2.0000000E-002 -5.0000000E-003  1.2000000E-003
  2.5000000E-002 -1.6917023E-017  1.0000000E-003
  2.5000000E-002 -1.6917023E-017  1.2000000E-003
  2.0000000E-002  5.0000000E-003  1.0000000E-003
  1.5000000E-002  5.0000000E-003  1.0000000E-003
  1.0000000E-002  5.0000000E-003  1.0000000E-003
  5.0000000E-003  5.0000000E-003  1.0000000E-003
 -5.8891210E-017  5.0000000E-003  1.0000000E-003
 -5.0000000E-003  5.0000000E-003  1.0000000E-003
 -1.0000000E-002  5.0000000E-003  1.0000000E-003
 -1.5000000E-002  5.0000000E-003  1.0000000E-003
 -2.0000000E-002  5.0000000E-003  1.0000000E-003
  2.0000000E-002  5.0000000E-003  1.2000000E-003
  1.5000000E-002  5.0000000E-003  1.2000000E-003
  1.0000000E-002  5.0000000E-003  1.2000000E-003
  5.0000000E-003  5.0000000E-003  1.2000000E-003
 -5.8891210E-017  5.0000000E-003  1.2000000E-003
 -5.0000000E-003  5.0000000E-003  1.2000000E-003
 -1.0000000E-002  5.0000000E-003  1.2000000E-003
 -1.5000000E-002  5.0000000E-003  1.2000000E-003
 -2.0000000E-002  5.0000000E-003  1.2000000E-003
 -2.5000000E-002 -1.6792123E-017  1.0000000E-003
 -2.5000000E-002 -1.6792123E-017  1.2000000E-003
  2.0000000E-002 -5.0000000E-003  0.0000000E+000
  1.5000000E-002 -5.0000000E-003  0.0000000E+000
  1.0000000E-002 -5.0000000E-003  0.0000000E+000
  5.0000000E-003 -5.0000000E-003  0.0000000E+000
 -5.8974477E-017 -5.0000000E-003  0.0000000E+000
 -5.0000000E-003 -5.0000000E-003  0.0000000E+000
 -1.0000000E-002 -5.0000000E-003  0.0000000E+000
 -1.5000000E-002 -5.0000000E-003  0.0000000E+000
 -2.0000000E-002 -5.0000000E-003  0.0000000E+000
  2.0000000E-002 -5.0000000E-003  1.0000000E-003
  1.5000000E-002 -5.0000000E-003  1.0000000E-003
  1.0000000E-002 -5.0000000E-003  1.0000000E-003
  5.0000000E-003 -5.0000000E-003  1.0000000E-003
 -5.8974477E-017 -5.0000000E-003  1.0000000E-003
 -5.0000000E-003 -5.0000000E-003  1.0000000E-003
 -1.0000000E-002 -5.0000000E-003  1.0000000E-003
 -1.5000000E-002 -5.0000000E-003  1.0000000E-003
 -2.0000000E-002 -5.0000000E-003  1.0000000E-003
  2.5000000E-002 -1.6917023E-017  0.0000000E+000
  2.5000000E-002 -1.6917023E-017  1.0000000E-003
  2.0000000E-002  5.0000000E-003  0.0000000E+000
  1.5000000E-002  5.0000000E-003  0.0000000E+000
  1.0000000E-002  5.0000000E-003  0.0000000E+000
  5.0000000E-003  5.0000000E-003  0.0000000E+000
 -5.8891210E-017  5.0000000E-003  0.0000000E+000
 -5.0000000E-003  5.0000000E-003  0.0000000E+000
 -1.0000000E-002  5.0000000E-003  0.0000000E+000
 -1.5000000E-002  5.0000000E-003  0.0000000E+000
 -2.0000000E-002  5.0000000E-003  0.0000000E+000
  2.0000000E-002  5.0000000E-003  1.0000000E-003
  1.5000000E-002  5.0000000E-003  1.0000000E-003
  1.0000000E-002  5.0000000E-003  1.0000000E-003
  5.0000000E-003  5.0000000E-003  1.0000000E-003
 -5.8891210E-017  5.0000000E-003  1.0000000E-003
 -5.0000000E-003  5.0000000E-003  1.0000000E-003
 -1.0000000E-002  5.0000000E-003  1.0000000E-003
 -1.5000000E-002  5.0000000E-003  1.0000000E-003
 -2.0000000E-002  5.0000000E-003  1.0000000E-003
 -2.5000000E-002 -1.6792123E-017  0.0000000E+000
 -2.5000000E-002 -1.6792123E-017  1.0000000E-003
 -1.2487860E-002  5.3530553E-006  1.2000000E-003
 -2.4938059E-003 -2.3836526E-004  1.2000000E-003
  7.5121405E-003 -5.3530553E-006  1.2000000E-003
  1.7500000E-002  6.6987298E-004  1.2000000E-003
 -1.7500000E-002 -5.1158731E-004  1.2000000E-003
  2.5021827E-003  1.1715372E-004  1.2000000E-003
 -7.4770051E-003  1.2760492E-004  1.2000000E-003
  1.2536710E-002 -2.0979801E-004  1.2000000E-003
  2.1712742E-002 -1.3315886E-003  1.2000000E-003
 -2.1720203E-002  1.3660539E-003  1.2000000E-003
 -2.2034908E-002 -2.0272885E-003  1.2000000E-003
  2.2100939E-002  2.1100897E-003  1.2000000E-003
 -1.2487860E-002  5.3530553E-006  1.0000000E-003
 -2.4938059E-003 -2.3836526E-004  1.0000000E-003
  7.5000000E-003 -6.9585777E-005  1.0000000E-003
  1.7500000E-002 -6.6987298E-004  1.0000000E-003
 -1.7500000E-002 -5.1158731E-004  1.0000000E-003
  2.5007374E-003  1.0950697E-004  1.0000000E-003
  1.2500000E-002  1.8769423E-004  1.0000000E-003
 -7.4770051E-003  1.2760492E-004  1.0000000E-003
  2.1712742E-002  1.3315886E-003  1.0000000E-003
 -2.1720203E-002  1.3660539E-003  1.0000000E-003
 -2.2034908E-002 -2.0272885E-003  1.0000000E-003
  2.2100939E-002 -2.1100897E-003  1.0000000E-003
 -1.2487860E-002  5.3530553E-006  1.0000000E-003
 -2.4938059E-003 -2.3836526E-004  1.0000000E-003
  7.5121405E-003 -5.3530553E-006  1.0000000E-003
  1.7500000E-002  6.6987298E-004  1.0000000E-003
 -1.7500000E-002 -5.1158731E-004  1.0000000E-003
  2.5021827E-003  1.1715372E-004  1.0000000E-003
 -7.4770051E-003  1.2760492E-004  1.0000000E-003
  1.2536710E-002 -2.0979801E-004  1.0000000E-003
  2.1712742E-002 -1.3315886E-003  1.0000000E-003
 -2.1720203E-002  1.3660539E-003  1.0000000E-003
 -2.2034908E-002 -2.0272885E-003  1.0000000E-003
  2.2100939E-002  2.1100897E-003  1.0000000E-003
 -7.5000000E-003 -2.2763674E-004  0.0000000E+000
 -1.7500000E-002 -6.6987298E-004  0.0000000E+000
  2.4938059E-003 -2.3836526E-004  0.0000000E+000
  1.2491328E-002  1.7637236E-004  0.0000000E+000
 -2.5007374E-003  9.0691376E-005  0.0000000E+000
 -1.2500000E-002  2.5178220E-004  0.0000000E+000
  1.7500000E-002 -6.6987298E-004  0.0000000E+000
  7.4975224E-003 -1.0332149E-005  0.0000000E+000
 -2.1712742E-002  1.3315886E-003  0.0000000E+000
  2.1712742E-002  1.3315886E-003  0.0000000E+000
 -2.2100939E-002 -2.1100897E-003  0.0000000E+000
  2.2100939E-002 -2.1100897E-003  0.0000000E+000

CELLS 563 2535
4 47 103 98 114 
4 103 114 111 17 
4 35 104 107 116 
4 110 114 103 18 
4 98 39 38 110 
4 27 28 98 110 
4 114 98 38 110 
4 108 31 102 96 
4 28 20 113 19 
4 101 28 29 113 
4 20 28 113 29 
4 31 21 102 30 
4 21 31 102 22 
4 22 21 115 102 
4 32 23 108 31 
4 108 96 32 31 
4 31 108 102 22 
4 115 108 22 102 
4 109 40 50 49 
4 109 40 41 50 
4 49 50 109 97 
4 23 22 108 31 
4 51 115 108 42 
4 47 39 98 48 
4 108 102 51 96 
4 28 113 110 19 
4 98 101 48 39 
4 39 47 98 38 
4 98 103 27 110 
4 102 108 51 115 
4 112 43 44 52 
4 52 44 112 53 
4 53 112 52 100 
4 19 27 110 28 
4 108 51 42 52 
4 108 51 52 96 
4 19 27 18 110 
4 112 108 43 52 
4 41 115 109 50 
4 113 29 109 20 
4 29 97 101 113 
4 51 115 42 50 
4 30 21 102 97 
4 38 47 98 114 
4 39 49 101 48 
4 110 103 27 18 
4 97 29 109 113 
4 50 51 115 102 
4 115 41 42 50 
4 108 52 42 43 
4 24 32 100 33 
4 109 29 21 20 
4 29 21 30 97 
4 29 109 21 97 
4 53 112 117 44 
4 18 26 103 27 
4 47 37 114 38 
4 26 18 103 17 
4 34 2 119 0 
4 4 35 5 107 
4 2 0 16 119 
4 111 16 25 17 
4 36 46 99 45 
4 111 26 103 17 
4 44 6 117 53 
4 118 105 106 100 
4 24 100 112 118 
4 45 5 107 36 
4 2 16 25 119 
4 5 4 107 36 
4 25 26 111 17 
4 36 46 37 99 
4 103 98 114 110 
4 18 114 103 17 
4 99 104 25 111 
4 36 4 107 116 
4 99 37 36 111 
4 104 2 25 119 
4 119 104 116 111 
4 25 26 99 111 
4 99 26 103 111 
4 103 111 37 99 
4 37 111 103 114 
4 37 46 103 99 
4 99 107 36 45 
4 111 119 25 16 
4 111 25 119 104 
4 28 110 101 98 
4 28 101 110 113 
4 39 101 110 98 
4 39 110 101 113 
4 118 105 112 117 
4 118 112 105 100 
4 53 112 105 117 
4 53 105 112 100 
4 39 113 49 40 
4 39 49 113 101 
4 109 49 113 40 
4 21 102 109 115 
4 21 109 102 97 
4 50 109 102 115 
4 50 102 109 97 
4 97 49 113 109 
4 113 49 97 101 
4 118 54 105 117 
4 7 54 105 55 
4 24 32 112 100 
4 24 112 32 23 
4 108 32 112 23 
4 96 32 112 108 
4 112 32 96 100 
4 112 52 96 108 
4 96 52 112 100 
4 53 6 105 7 
4 53 105 6 117 
4 54 105 6 7 
4 54 6 105 117 
4 105 106 54 118 
4 105 54 106 55 
4 3 106 54 55 
4 47 37 103 114 
4 47 103 37 46 
4 33 106 1 3 
4 54 1 106 3 
4 54 106 1 118 
4 1 106 24 118 
4 1 24 106 33 
4 100 24 106 118 
4 100 106 24 33 
4 35 4 116 107 
4 35 116 4 34 
4 116 34 104 119 
4 116 104 34 35 
4 2 104 34 119 
4 2 34 104 35 
4 36 111 107 99 
4 36 107 111 116 
4 104 107 111 99 
4 104 111 107 116 
4 123 65 66 138 
4 123 77 76 138 
4 123 128 65 138 
4 77 123 135 138 
4 123 66 127 138 
4 76 12 131 141 
4 10 65 128 143 
4 86 127 87 135 
4 75 10 128 143 
4 58 135 127 57 
4 125 80 79 134 
4 132 81 82 126 
4 136 90 121 89 
4 59 67 139 68 
4 70 126 132 71 
4 122 67 68 139 
4 125 68 69 134 
4 67 59 139 58 
4 63 62 137 120 
4 78 88 122 87 
4 88 78 122 79 
4 61 136 121 60 
4 79 78 122 139 
4 72 62 120 71 
4 127 122 87 135 
4 140 84 129 124 
4 139 67 127 122 
4 134 79 125 139 
4 63 62 120 72 
4 135 122 78 139 
4 122 79 125 88 
4 79 122 125 139 
4 120 132 126 71 
4 67 139 127 58 
4 83 93 124 92 
4 139 135 127 58 
4 132 136 81 126 
4 68 134 139 59 
4 120 92 137 124 
4 78 87 122 135 
4 80 125 136 134 
4 133 83 84 124 
4 125 136 121 89 
4 93 83 124 84 
4 136 90 126 121 
4 126 91 137 120 
4 62 132 137 120 
4 125 89 88 80 
4 88 125 80 79 
4 62 132 120 71 
4 90 82 126 91 
4 89 125 136 80 
4 91 92 137 120 
4 136 81 90 80 
4 90 81 136 126 
4 89 136 90 80 
4 82 137 132 126 
4 137 82 91 126 
4 136 132 61 121 
4 68 134 59 60 
4 69 121 125 134 
4 134 121 136 60 
4 70 132 126 121 
4 58 127 67 57 
4 82 90 126 81 
4 121 69 61 60 
4 69 61 70 121 
4 134 68 69 60 
4 140 14 94 129 
4 92 83 137 124 
4 15 94 129 95 
4 70 61 132 121 
4 132 62 61 70 
4 132 62 70 71 
4 133 137 83 124 
4 69 121 134 60 
4 94 15 129 14 
4 64 72 133 73 
4 138 141 128 143 
4 78 77 87 135 
4 84 140 133 124 
4 66 67 127 57 
4 84 93 129 124 
4 120 133 63 72 
4 77 86 87 135 
4 137 133 63 120 
4 127 135 138 57 
4 137 82 83 91 
4 86 123 127 135 
4 133 120 124 72 
4 15 14 93 129 
4 84 14 140 129 
4 92 137 83 91 
4 64 72 63 133 
4 11 142 130 73 
4 142 9 11 94 
4 8 10 74 143 
4 64 9 11 142 
4 10 8 56 143 
4 75 12 131 13 
4 10 75 74 143 
4 142 11 64 73 
4 133 124 73 72 
4 123 86 77 135 
4 86 85 123 76 
4 65 57 138 56 
4 138 66 127 57 
4 140 129 130 124 
4 14 84 93 129 
4 140 142 133 130 
4 85 13 131 76 
4 65 10 56 143 
4 13 12 131 76 
4 124 130 133 73 
4 57 65 138 66 
4 77 86 123 76 
4 130 133 140 124 
4 135 127 122 139 
4 126 137 132 120 
4 125 121 136 134 
4 132 136 126 121 
4 137 133 120 124 
4 135 123 127 138 
4 140 94 142 130 
4 125 139 68 134 
4 68 139 125 122 
4 131 76 123 85 
4 65 143 138 128 
4 138 143 65 56 
4 142 73 133 130 
4 133 73 142 64 
4 130 94 11 95 
4 130 11 94 142 
4 129 94 130 95 
4 129 130 94 140 
4 75 143 141 74 
4 141 143 75 128 
4 75 131 141 128 
4 128 138 131 141 
4 128 131 138 123 
4 76 131 138 141 
4 76 138 131 123 
4 141 75 12 131 
4 12 75 141 74 
3 2 16 0 
3 1 33 3 
3 1 24 33 
3 2 25 16 
3 16 25 17 
3 26 18 17 
3 25 26 17 
3 19 18 27 
3 18 26 27 
3 28 20 19 
3 19 27 28 
3 29 21 20 
3 20 28 29 
3 21 31 22 
3 29 30 21 
3 31 21 30 
3 23 22 31 
3 32 24 23 
3 32 23 31 
3 24 32 33 
3 34 2 0 
3 2 34 35 
3 4 5 35 
3 4 35 34 
3 5 4 36 
3 45 5 36 
3 53 6 7 
3 44 6 53 
3 36 37 46 
3 36 46 45 
3 47 37 38 
3 37 47 46 
3 39 47 38 
3 49 39 40 
3 47 39 48 
3 39 49 48 
3 40 41 50 
3 40 50 49 
3 41 42 50 
3 52 42 43 
3 42 51 50 
3 51 42 52 
3 43 44 52 
3 52 44 53 
3 54 1 3 
3 54 3 55 
3 6 54 7 
3 7 54 55 
3 104 25 2 
3 104 2 35 
3 33 106 3 
3 3 106 55 
3 35 5 107 
3 45 107 5 
3 105 53 7 
3 105 7 55 
3 25 99 26 
3 99 25 104 
3 26 103 27 
3 99 103 26 
3 27 98 28 
3 98 27 103 
3 101 29 28 
3 101 28 98 
3 30 29 97 
3 29 101 97 
3 102 31 30 
3 102 30 97 
3 96 32 31 
3 31 102 96 
3 32 100 33 
3 32 96 100 
3 100 106 33 
3 35 107 104 
3 46 99 45 
3 99 107 45 
3 47 103 46 
3 46 103 99 
3 98 47 48 
3 47 98 103 
3 49 101 48 
3 98 48 101 
3 49 50 97 
3 49 97 101 
3 50 51 102 
3 50 102 97 
3 51 52 96 
3 102 51 96 
3 52 53 100 
3 96 52 100 
3 53 105 100 
3 106 105 55 
3 104 107 99 
3 105 106 100 
3 0 16 119 
3 119 34 0 
3 24 1 118 
3 1 54 118 
3 116 4 34 
3 36 4 116 
3 44 117 6 
3 54 6 117 
3 111 16 17 
3 111 119 16 
3 18 114 17 
3 114 111 17 
3 18 19 110 
3 110 114 18 
3 20 113 19 
3 113 110 19 
3 21 109 20 
3 109 113 20 
3 22 115 21 
3 109 21 115 
3 23 108 22 
3 115 22 108 
3 24 112 23 
3 112 108 23 
3 112 24 118 
3 116 34 119 
3 37 36 111 
3 111 36 116 
3 37 114 38 
3 37 111 114 
3 39 38 110 
3 38 114 110 
3 39 113 40 
3 39 110 113 
3 109 41 40 
3 113 109 40 
3 115 42 41 
3 41 109 115 
3 42 108 43 
3 115 108 42 
3 112 44 43 
3 112 43 108 
3 112 117 44 
3 118 54 117 
3 116 119 111 
3 112 118 117 
3 10 56 8 
3 64 11 9 
3 65 56 10 
3 11 64 73 
3 65 57 56 
3 67 58 57 
3 57 65 66 
3 66 67 57 
3 67 59 58 
3 59 68 60 
3 59 67 68 
3 69 61 60 
3 68 69 60 
3 62 61 70 
3 69 70 61 
3 63 62 72 
3 62 70 71 
3 72 62 71 
3 64 63 72 
3 64 72 73 
3 8 74 10 
3 10 74 75 
3 75 12 13 
3 12 75 74 
3 13 12 76 
3 85 13 76 
3 15 93 14 
3 14 93 84 
3 77 86 76 
3 86 85 76 
3 78 87 77 
3 77 87 86 
3 88 78 79 
3 78 88 87 
3 80 88 79 
3 81 90 80 
3 89 88 80 
3 90 89 80 
3 82 90 81 
3 82 83 91 
3 90 82 91 
3 93 83 84 
3 83 92 91 
3 83 93 92 
3 9 11 94 
3 94 11 95 
3 94 15 14 
3 15 94 95 
3 10 128 65 
3 75 128 10 
3 130 11 73 
3 11 130 95 
3 131 75 13 
3 85 131 13 
3 93 15 129 
3 129 15 95 
3 123 66 65 
3 123 65 128 
3 66 127 67 
3 123 127 66 
3 122 68 67 
3 67 127 122 
3 125 69 68 
3 125 68 122 
3 70 69 121 
3 69 125 121 
3 70 126 71 
3 126 70 121 
3 120 72 71 
3 126 120 71 
3 124 73 72 
3 120 124 72 
3 124 130 73 
3 75 131 128 
3 86 123 85 
3 123 131 85 
3 86 87 127 
3 86 127 123 
3 88 122 87 
3 127 87 122 
3 125 88 89 
3 125 122 88 
3 90 121 89 
3 121 125 89 
3 126 90 91 
3 90 126 121 
3 91 92 120 
3 126 91 120 
3 93 124 92 
3 120 92 124 
3 93 129 124 
3 130 129 95 
3 128 131 123 
3 129 130 124 
3 8 56 143 
3 74 8 143 
3 64 9 142 
3 142 9 94 
3 141 12 74 
3 76 12 141 
3 84 140 14 
3 140 94 14 
3 57 138 56 
3 138 143 56 
3 58 135 57 
3 135 138 57 
3 59 139 58 
3 139 135 58 
3 134 59 60 
3 134 139 59 
3 61 136 60 
3 136 134 60 
3 132 61 62 
3 136 61 132 
3 63 137 62 
3 62 137 132 
3 63 64 133 
3 137 63 133 
3 142 133 64 
3 143 141 74 
3 77 76 138 
3 138 76 141 
3 78 77 135 
3 135 77 138 
3 79 78 139 
3 78 135 139 
3 80 79 134 
3 134 79 139 
3 136 81 80 
3 136 80 134 
3 132 82 81 
3 132 81 136 
3 137 83 82 
3 82 132 137 
3 133 84 83 
3 133 83 137 
3 84 133 140 
3 140 142 94 
3 140 133 142 
3 138 141 143 

CELL_TYPES 563
10
10
10
10
10
10
10
10
10
10
10
10
10
10
10
10
10
10
10
10
10
10
10
10
10
10
10
10
10
10
10
10
10
10
10
10
10
10
10
10
10
10
10
10
10
10
10
10
10
10
10
10
10
10
10
10
10
10
10
10
10
10
10
10
10
10
10
10
10
10
10
10
10
10
10
10
10
10
10
10
10
10
10
10
10
10
10
10
10
10
10
10
10
10
10
10
10
10
10
10
10
10
10
10
10
10
10
10
10
10
10
10
10
10
10
10
10
10
10
10
10
10
10
10
10
10
10
10
10
10
10
10
10
10
10
10
10
10
10
10
10
10
10
10
10
10
10
10
10
10
10
10
10
10
10
10
10
10
10
10
10
10
10
10
10
10
10
10
10
10
10
10
10
10
10
10
10
10
10
10
10
10
10
10
10
10
10
10
10
10
10
10
10
10
10
10
10
10
10
10
10
10
10
10
10
10
10
10
10
10
10
10
10
10
10
10
10
10
10
10
10
10
10
10
10
10
10
10
10
10
10
10
10
10
10
10
10
10
10
10
10
10
10
10
10
10
10
10
10
10
10
10
10
10
10
10
10
10
10
10
10
10
10
10
10
10
10
10
10
10
10
10
10
10
10
10
10
10
10
10
10
10
10
5
5
5
5
5
5
5
5
5
5
5
5
5
5
5
5
5
5
5
5
5
5
5
5
5
5
5
5
5
5
5
5
5
5
5
5
5
5
5
5
5
5
5
5
5
5
5
5
5
5
5
5
5
5
5
5
5
5
5
5
5
5
5
5
5
5
5
5
5
5
5
5
5
5
5
5
5
5
5
5
5
5
5
5
5
5
5
5
5
5
5
5
5
5
5
5
5
5
5
5
5
5
5
5
5
5
5
5
5
5
5
5
5
5
5
5
5
5
5
5
5
5
5
5
5
5
5
5
5
5
5
5
5
5
5
5
5
5
5
5
5
5
5
5
5
5
5
5
5
5
5
5
5
5
5
5
5
5
5
5
5
5
5
5
5
5
5
5
5
5
5
5
5
5
5
5
5
5
5
5
5
5
5
5
5
5
5
5
5
5
5
5
5
5
5
5
5
5
5
5
5
5
5
5
5
5
5
5
5
5
5
5
5
5
5
5
5
5
5
5
5
5
5
5
5
5
5
5
5
5
5
5
5
5
5
5
5
5
5
5
5
5
5
5
5
5
5
5
5
5
5
5
5
5
5
5
5
5
5
5
5
5
5
5
5
5
5
5
5
5
5
5
5
5
5
5
5
5
5
5

 CELL_DATA         563
SCALARS material int32
LOOKUP_TABLE default
           1
           1
           1
           1
           1
           1
           1
           1
           1
           1
           1
           1
           1
           1
           1
           1
           1
           1
           1
           1
           1
           1
           1
           1
           1
           1
           1
           1
           1
           1
           1
           1
           1
           1
           1
           1
           1
           1
           1
           1
           1
           1
           1
           1
           1
           1
           1
           1
           1
           1
           1
           1
           1
           1
           1
           1
           1
           1
           1
           1
           1
           1
           1
           1
           1
           1
           1
           1
           1
           1
           1
           1
           1
           1
           1
           1
           1
           1
           1
           1
           1
           1
           1
           1
           1
           1
           1
           1
           1
           1
           1
           1
           1
           1
           1
           1
           1
           1
           1
           1
           1
           1
           1
           1
           1
           1
           1
           1
           1
           1
           1
           1
           1
           1
           1
           1
           1
           1
           1
           1
           1
           1
           1
           1
           1
           1
           1
           1
           1
           1
           1
           1
           1
           1
           1
           1
           1
           1
           1
           1
           1
           1
           1
           1
           1
           1
           1
           1
           1
           1
           1
           1
           1
           1
           1
           1
           1
           1
           1
           1
           1
           1
           1
           1
           1
           1
           1
           1
           1
           1
           1
           1
           1
           1
           1
           1
           1
           1
           1
           1
           1
           1
           1
           1
           1
           1
           1
           1
           1
           1
           1
           1
           1
           1
           1
           1
           1
           1
           1
           1
           1
           1
           1
           1
           1
           1
           1
           1
           1
           1
           1
           1
           1
           1
           1
           1
           1
           1
           1
           1
           1
           1
           1
           1
           1
           1
           1
           1
           1
           1
           1
           1
           1
           1
           1
           1
           1
           1
           1
           1
           1
           1
           1
           1
           1
           1
           1
           1
           1
           1
           1
           1
           1
           1
           1
           1
           1
           1
           1
           1
           1
           1
           1
           1
           1
           1
           1
           1
           1
           1
           1
           1
           1
           1
           1
           1
           1
           1
           1
           1
           1
           1
           1
         101
         101
         101
         101
         101
         101
         101
         101
         101
         101
         101
         101
         101
         101
         101
         101
         101
         101
         101
         101
         100
         100
         100
         100
         100
         100
         100
         100
         100
         100
         100
         100
         100
         100
         100
         100
         100
         100
         100
         100
         100
         100
         100
         100
         100
         100
         100
         100
         100
         100
         100
         100
         100
         100
         100
         100
         100
         100
         100
         100
         100
         100
         100
         100
         100
         100
         100
         100
         100
         100
         100
         100
         100
         100
         100
         100
         100
         100
         100
         100
         100
         100
         100
         100
         100
         100
         100
         100
         100
         100
         100
         100
         100
         100
         100
         100
         100
         100
         100
         100
         100
         100
         100
         100
         100
         100
         100
         100
         100
         100
         100
         100
         100
         100
         100
         100
         100
         100
         100
         100
         100
         100
         100
         100
         100
         100
         100
         100
         100
         100
         100
         100
         100
         100
         100
         100
         100
         100
         100
         100
         100
         100
         100
         100
         100
         100
         100
         100
         100
         100
         100
         100
         100
         100
         100
         100
         100
         100
         100
         100
         100
         100
         100
         100
         100
         100
         100
         100
         100
         100
         100
         100
         100
         100
         100
         100
         100
         100
         100
         100
         100
         100
         100
         100
         100
         100
         100
         100
         100
         100
         100
         100
         100
         100
         100
         100
         100
         100
         100
         100
         100
         100
         100
         100
         100
         100
         100
         100
         100
         100
         100
         100
         100
         100
         100
         100
         100
         100
         100
         100
         100
         100
         100
         100
         100
         100
         100
         100
         100
         100
         100
         100
         100
         100
         100
         100
         100
         100
         100
         100
         100
         100
         100
         100
         100
         100
         100
         100
         100
         100
         100
         100
         100
         100
         100
         100
         100
         100
         100
         100
         100
         100
         100
         100
         100
         100
         100
         100
         100
         100
         100
         100
         100
         100
         100
         100
         100
         100
         100
         100
POINT_DATA 144
VECTORS Displacement double
  0.0000000E+000  0.0000000E+000  0.0000000E+000
  0.0000000E+000  0.0000000E+000  0.0000000E+000
  0.0000000E+000  0.0000000E+000  0.0000000E+000
  0.0000000E+000  0.0000000E+000  0.0000000E+000
  2.4210143E+000 -6.0426002E-001  5.8262592E-001
  2.4126705E+000 -6.1326621E-001  5.8677199E-001
  1.0170624E+000  1.5400597E+000  9.5514879E+000
  9.1322301E-001  1.0933883E+000  9.5402907E+000
  1.5353411E+001 -3.6849013E-001  4.9300214E+001
  1.5844702E+001  6.0750362E+000 -1.0525647E+001
  1.4268928E+001  1.1939520E+000  4.9300445E+001
  1.4532445E+001  7.5096486E+000 -1.0522904E+001
  1.6709720E+001 -3.6792690E-001  3.3676899E+001
  1.5627325E+001  1.1961806E+000  3.3676343E+001
  1.6648254E+001  6.0551802E+000 -2.4697379E+001
  1.5353731E+001  7.4756837E+000 -2.4697263E+001
  0.0000000E+000  0.0000000E+000  0.0000000E+000
  0.0000000E+000  0.0000000E+000  0.0000000E+000
  0.0000000E+000  0.0000000E+000  0.0000000E+000
  0.0000000E+000  0.0000000E+000  0.0000000E+000
  0.0000000E+000  0.0000000E+000  0.0000000E+000
  0.0000000E+000  0.0000000E+000  0.0000000E+000
  0.0000000E+000  0.0000000E+000  0.0000000E+000
  0.0000000E+000  0.0000000E+000  0.0000000E+000
  0.0000000E+000  0.0000000E+000  0.0000000E+000
  0.0000000E+000  0.0000000E+000  0.0000000E+000
  0.0000000E+000  0.0000000E+000  0.0000000E+000
  0.0000000E+000  0.0000000E+000  0.0000000E+000
  0.0000000E+000  0.0000000E+000  0.0000000E+000
  0.0000000E+000  0.0000000E+000  0.0000000E+000
  0.0000000E+000  0.0000000E+000  0.0000000E+000
  0.0000000E+000  0.0000000E+000  0.0000000E+000
  0.0000000E+000  0.0000000E+000  0.0000000E+000
  0.0000000E+000  0.0000000E+000  0.0000000E+000
  1.3318928E+000 -5.0173518E-001  3.4048223E-001
  1.3262562E+000 -5.1398436E-001  3.4604392E-001
  2.3384332E+000 -3.2564804E-001  4.1384157E-001
  2.0987571E+000 -2.4342696E-001  2.5537991E-001
  1.1282260E+000 -2.8763623E-001 -4.9834374E-001
  9.3013998E-002  1.3478654E-001 -1.4349877E+000
 -7.5459281E-001  6.5726327E-001 -1.9909673E+000
 -9.1658455E-001  4.2360088E-001  6.3259903E-001
  9.5396216E-002 -7.5335945E-001  7.2737349E+000
  1.0008902E+000 -1.0539922E+000  1.1246234E+001
  1.6335648E+000  7.8007395E-001  1.3064044E+001
  2.3310936E+000 -3.3383716E-001  4.1434887E-001
  2.0809573E+000 -2.4688920E-001  2.5002353E-001
  1.1021846E+000 -2.7804963E-001 -5.1363711E-001
  6.3630508E-002  1.5787550E-001 -1.4493670E+000
 -7.1779238E-001  6.7891154E-001 -2.0002597E+000
 -7.6757053E-001  3.8480064E-001  6.3498590E-001
  2.7116787E-001 -9.3249369E-001  7.2845827E+000
  1.0765822E+000 -1.3424275E+000  1.1253661E+001
  1.5649707E+000  3.7536385E-001  1.3055768E+001
 -9.5545606E-001  9.8786408E-001 -7.5553437E-001
 -9.3309257E-001  7.4164722E-001 -7.4886883E-001
  1.5357801E+001  3.0323243E-001  4.3879383E+001
  1.5360274E+001  9.6763888E-001  3.8416583E+001
  1.5354201E+001  1.6781825E+000  3.2875091E+001
  1.5354325E+001  2.4255586E+000  2.7167479E+001
  1.5380296E+001  3.1898698E+000  2.1298727E+001
  1.5453659E+001  3.9418300E+000  1.5195335E+001
  1.5546751E+001  4.6239926E+000  8.9126447E+000
  1.5662073E+001  5.2080971E+000  2.5584431E+000
  1.5802987E+001  5.6623188E+000 -3.9012818E+000
  1.4270386E+001  1.8652298E+000  4.3879601E+001
  1.4259244E+001  2.5290467E+000  3.8414848E+001
  1.4232508E+001  3.2299152E+000  3.2875180E+001
  1.4204071E+001  3.9642677E+000  2.7167779E+001
  1.4191575E+001  4.7059955E+000  2.1301268E+001
  1.4225765E+001  5.4348344E+000  1.5196385E+001
  1.4288154E+001  6.0934145E+000  8.9173142E+000
  1.4386965E+001  6.6616738E+000  2.5637822E+000
  1.4497258E+001  7.1085695E+000 -3.8977033E+000
  1.6023865E+001 -3.6860876E-001  4.1488066E+001
  1.4940709E+001  1.1941508E+000  4.1487859E+001
  1.6706321E+001  3.1004156E-001  2.8261252E+001
  1.6730118E+001  9.8614575E-001  2.2798702E+001
  1.6756235E+001  1.6909731E+000  1.7317937E+001
  1.6776516E+001  2.4313535E+000  1.1783777E+001
  1.6797443E+001  3.2102830E+000  6.1125718E+000
  1.6774517E+001  3.9416726E+000  2.5664418E-001
  1.6728123E+001  4.6305180E+000 -5.7587128E+000
  1.6670527E+001  5.2523118E+000 -1.1880362E+001
  1.6649394E+001  5.6935860E+000 -1.8245981E+001
  1.5618250E+001  1.8733493E+000  2.8260798E+001
  1.5633848E+001  2.5475032E+000  2.2800086E+001
  1.5649350E+001  3.2432708E+000  1.7317124E+001
  1.5651848E+001  3.9696976E+000  1.1785026E+001
  1.5634879E+001  4.7288287E+000  6.1114400E+000
  1.5581081E+001  5.4362033E+000  2.5430591E-001
  1.5501355E+001  6.0980062E+000 -5.7604957E+000
  1.5413000E+001  6.6971018E+000 -1.1884106E+001
  1.5367389E+001  7.1250539E+000 -1.8245014E+001
  1.6256196E+001  6.0702489E+000 -1.7622897E+001
  1.4957208E+001  7.4885912E+000 -1.7620855E+001
  4.0934695E-002 -1.1087282E+000  3.5906424E+000
 -1.5843919E-001  2.4659495E-001 -6.1025979E-001
  2.7514709E-001  2.3744001E-002 -4.9654363E-001
  1.3597755E+000 -1.4998956E-001  1.7285567E-001
 -1.0792792E+000 -3.8840986E-001  2.9079156E+000
 -2.5312764E-001  4.4723208E-001 -1.1621266E+000
  1.9676129E-001 -3.0735645E-001  1.2983056E+000
  1.0917414E+000 -9.8198048E-002 -5.0765184E-002
  9.5016557E-001 -1.7838717E-001  1.7569556E-001
 -6.7796967E-001  5.7359204E-001  3.0581820E+000
 -1.3429306E+000  6.0624887E-001 -3.2101328E+000
  1.7891786E+000 -3.3940924E-001  3.4096700E-001
 -1.6618132E-002 -9.2303026E-001  3.5830716E+000
 -2.0866395E-001  2.3242635E-001 -6.0783846E-001
  2.9063558E-001  5.7653581E-003 -4.7953921E-001
  1.0624477E+000 -1.0292689E-001  1.2787646E-001
 -1.0228800E+000 -1.4238224E-001  2.9122559E+000
 -2.4627497E-001  4.1178096E-001 -1.1506521E+000